<?xml version="1.0"?>
<VTKFile type="RectilinearGrid" version="0.1" byte_order="LittleEndian" header_type="UInt32" compressor="vtkZLibDataCompressor">
  <RectilinearGrid WholeExtent="0 1 0 1 0 1">
    <FieldData>
      <Array type="String" Name="creationTime" NumberOfTuples="1" format="ascii">
        87 101 100 32 65 112 114 32 50 54 32 49 49 58 51 54 58 49 52 32 50 48 50 51 0
      </Array>
      <Array type="String" Name="author" NumberOfTuples="1" format="ascii">
        108 97 103 104 105 100 97 0
      </Array>
      <Array type="String" Name="host" NumberOfTuples="1" format="ascii">
        45 76 45 50 54 49 51 49 0
      </Array>
      <Array type="String" Name="path" NumberOfTuples="1" format="ascii">
        100 58 92 68 65 84 65 92 108 97 103 104 105 100 97 92 68 111 99 117 109 101 110 116 115 92 71 105 116 72 117 98 92 70 52 69 112 97 114 115 101 114 0
      </Array>
    </FieldData>
  <Piece Extent="0 1 0 1 0 1">
    <PointData>
    </PointData>
    <CellData>
      <DataArray type="Float64" Name="Value - Total" format="ascii" RangeMin="0.00123181" RangeMax="0.00123181">
        0.00123181
      </DataArray>
      <DataArray type="Float64" Name="Error - Total" format="ascii" RangeMin="0.02009" RangeMax="0.02009">
        0.02009
      </DataArray>
    </CellData>
    <Coordinates>
      <DataArray type="Float64" Name="X (cm)" format="ascii" RangeMin="1190" RangeMax="1250">
        1190 1250
      </DataArray>
      <DataArray type="Float64" Name="Y (cm)" format="ascii" RangeMin="-113" RangeMax="-69">
        -113 -69
      </DataArray>
      <DataArray type="Float64" Name="Z (cm)" format="ascii" RangeMin="517" RangeMax="707">
        517 707
      </DataArray>
    </Coordinates>
  </Piece>
  </RectilinearGrid>
</VTKFile>
