<?xml version="1.0"?>
<VTKFile type="StructuredGrid" version="0.1" byte_order="LittleEndian" header_type="UInt32" compressor="vtkZLibDataCompressor">
  <StructuredGrid WholeExtent="0 3 0 10 0 10">
    <FieldData>
      <Array type="String" Name="creationTime" NumberOfTuples="1" format="ascii">
        87 101 100 32 65 112 114 32 50 54 32 49 49 58 51 54 58 49 52 32 50 48 50 51 0
      </Array>
      <Array type="String" Name="author" NumberOfTuples="1" format="ascii">
        108 97 103 104 105 100 97 0
      </Array>
      <Array type="String" Name="host" NumberOfTuples="1" format="ascii">
        45 76 45 50 54 49 51 49 0
      </Array>
      <Array type="String" Name="path" NumberOfTuples="1" format="ascii">
        100 58 92 68 65 84 65 92 108 97 103 104 105 100 97 92 68 111 99 117 109 101 110 116 115 92 71 105 116 72 117 98 92 70 52 69 112 97 114 115 101 114 0
      </Array>
    </FieldData>
  <Piece Extent="0 3 0 10 0 10">
    <PointData>
    </PointData>
    <CellData>
      <DataArray type="Float64" Name="Value - Total" format="ascii" RangeMin="0" RangeMax="0">
        0 0 0 0 0 0
        0 0 0 0 0 0
        0 0 0 0 0 0
        0 0 0 0 0 0
        0 0 0 0 0 0
        0 0 0 0 0 0
        0 0 0 0 0 0
        0 0 0 0 0 0
        0 0 0 0 0 0
        0 0 0 0 0 0
        0 0 0 0 0 0
        0 0 0 0 0 0
        0 0 0 0 0 0
        0 0 0 0 0 0
        0 0 0 0 0 0
        0 0 0 0 0 0
        0 0 0 0 0 0
        0 0 0 0 0 0
        0 0 0 0 0 0
        0 0 0 0 0 0
        0 0 0 0 0 0
        0 0 0 0 0 0
        0 0 0 0 0 0
        0 0 0 0 0 0
        0 0 0 0 0 0
        0 0 0 0 0 0
        0 0 0 0 0 0
        0 0 0 0 0 0
        0 0 0 0 0 0
        0 0 0 0 0 0
        0 0 0 0 0 0
        0 0 0 0 0 0
        0 0 0 0 0 0
        0 0 0 0 0 0
        0 0 0 0 0 0
        0 0 0 0 0 0
        0 0 0 0 0 0
        0 0 0 0 0 0
        0 0 0 0 0 0
        0 0 0 0 0 0
        0 0 0 0 0 0
        0 0 0 0 0 0
        0 0 0 0 0 0
        0 0 0 0 0 0
        0 0 0 0 0 0
        0 0 0 0 0 0
        0 0 0 0 0 0
        0 0 0 0 0 0
        0 0 0 0 0 0
        0 0 0 0 0 0
      </DataArray>
      <DataArray type="Float64" Name="Error - Total" format="ascii" RangeMin="0" RangeMax="0">
        0 0 0 0 0 0
        0 0 0 0 0 0
        0 0 0 0 0 0
        0 0 0 0 0 0
        0 0 0 0 0 0
        0 0 0 0 0 0
        0 0 0 0 0 0
        0 0 0 0 0 0
        0 0 0 0 0 0
        0 0 0 0 0 0
        0 0 0 0 0 0
        0 0 0 0 0 0
        0 0 0 0 0 0
        0 0 0 0 0 0
        0 0 0 0 0 0
        0 0 0 0 0 0
        0 0 0 0 0 0
        0 0 0 0 0 0
        0 0 0 0 0 0
        0 0 0 0 0 0
        0 0 0 0 0 0
        0 0 0 0 0 0
        0 0 0 0 0 0
        0 0 0 0 0 0
        0 0 0 0 0 0
        0 0 0 0 0 0
        0 0 0 0 0 0
        0 0 0 0 0 0
        0 0 0 0 0 0
        0 0 0 0 0 0
        0 0 0 0 0 0
        0 0 0 0 0 0
        0 0 0 0 0 0
        0 0 0 0 0 0
        0 0 0 0 0 0
        0 0 0 0 0 0
        0 0 0 0 0 0
        0 0 0 0 0 0
        0 0 0 0 0 0
        0 0 0 0 0 0
        0 0 0 0 0 0
        0 0 0 0 0 0
        0 0 0 0 0 0
        0 0 0 0 0 0
        0 0 0 0 0 0
        0 0 0 0 0 0
        0 0 0 0 0 0
        0 0 0 0 0 0
        0 0 0 0 0 0
        0 0 0 0 0 0
      </DataArray>
    </CellData>
    <Points>
      <DataArray type="Float32" Name="Points" NumberOfComponents="3" format="ascii" RangeMin="22.71538571129713" RangeMax="130.32271875845387">
        -49.83330154418945 -50 -50 -33.33000183105469 -50 -50
        -16.670000076293945 -50 -50 0 -50 -50
        -49.83330154418945 -50 -45 -33.33000183105469 -50 -45
        -16.670000076293945 -50 -45 0 -50 -45
        -49.83330154418945 -50 -40 -33.33000183105469 -50 -40
        -16.670000076293945 -50 -40 0 -50 -40
        -49.83330154418945 -50 -35 -33.33000183105469 -50 -35
        -16.670000076293945 -50 -35 0 -50 -35
        -49.83330154418945 -50 -30 -33.33000183105469 -50 -30
        -16.670000076293945 -50 -30 0 -50 -30
        -49.83330154418945 -50 -25 -33.33000183105469 -50 -25
        -16.670000076293945 -50 -25 0 -50 -25
        -49.83330154418945 -50 -20 -33.33000183105469 -50 -20
        -16.670000076293945 -50 -20 0 -50 -20
        -49.83330154418945 -50 -15 -33.33000183105469 -50 -15
        -16.670000076293945 -50 -15 0 -50 -15
        -49.83330154418945 -50 -10 -33.33000183105469 -50 -10
        -16.670000076293945 -50 -10 0 -50 -10
        -49.83330154418945 -50 -5 -33.33000183105469 -50 -5
        -16.670000076293945 -50 -5 0 -50 -5
        -49.83330154418945 -50 0 -33.33000183105469 -50 0
        -16.670000076293945 -50 0 0 -50 0
        -49.865135192871094 -49.902015686035156 -50 -36.51368713378906 -40.20161819458008 -50
        -23.035463333129883 -30.409116744995117 -50 -9.549150466918945 -20.610736846923828 -50
        -49.865135192871094 -49.902015686035156 -45 -36.51368713378906 -40.20161819458008 -45
        -23.035463333129883 -30.409116744995117 -45 -9.549150466918945 -20.610736846923828 -45
        -49.865135192871094 -49.902015686035156 -40 -36.51368713378906 -40.20161819458008 -40
        -23.035463333129883 -30.409116744995117 -40 -9.549150466918945 -20.610736846923828 -40
        -49.865135192871094 -49.902015686035156 -35 -36.51368713378906 -40.20161819458008 -35
        -23.035463333129883 -30.409116744995117 -35 -9.549150466918945 -20.610736846923828 -35
        -49.865135192871094 -49.902015686035156 -30 -36.51368713378906 -40.20161819458008 -30
        -23.035463333129883 -30.409116744995117 -30 -9.549150466918945 -20.610736846923828 -30
        -49.865135192871094 -49.902015686035156 -25 -36.51368713378906 -40.20161819458008 -25
        -23.035463333129883 -30.409116744995117 -25 -9.549150466918945 -20.610736846923828 -25
        -49.865135192871094 -49.902015686035156 -20 -36.51368713378906 -40.20161819458008 -20
        -23.035463333129883 -30.409116744995117 -20 -9.549150466918945 -20.610736846923828 -20
        -49.865135192871094 -49.902015686035156 -15 -36.51368713378906 -40.20161819458008 -15
        -23.035463333129883 -30.409116744995117 -15 -9.549150466918945 -20.610736846923828 -15
        -49.865135192871094 -49.902015686035156 -10 -36.51368713378906 -40.20161819458008 -10
        -23.035463333129883 -30.409116744995117 -10 -9.549150466918945 -20.610736846923828 -10
        -49.865135192871094 -49.902015686035156 -5 -36.51368713378906 -40.20161819458008 -5
        -23.035463333129883 -30.409116744995117 -5 -9.549150466918945 -20.610736846923828 -5
        -49.865135192871094 -49.902015686035156 0 -36.51368713378906 -40.20161819458008 0
        -23.035463333129883 -30.409116744995117 0 -9.549150466918945 -20.610736846923828 0
        -49.948486328125 -49.84145736694336 -50 -44.84868621826172 -34.14588928222656 -50
        -39.700462341308594 -18.301286697387695 -50 -34.54914855957031 -2.447174072265625 -50
        -49.948486328125 -49.84145736694336 -45 -44.84868621826172 -34.14588928222656 -45
        -39.700462341308594 -18.301286697387695 -45 -34.54914855957031 -2.447174072265625 -45
        -49.948486328125 -49.84145736694336 -40 -44.84868621826172 -34.14588928222656 -40
        -39.700462341308594 -18.301286697387695 -40 -34.54914855957031 -2.447174072265625 -40
        -49.948486328125 -49.84145736694336 -35 -44.84868621826172 -34.14588928222656 -35
        -39.700462341308594 -18.301286697387695 -35 -34.54914855957031 -2.447174072265625 -35
        -49.948486328125 -49.84145736694336 -30 -44.84868621826172 -34.14588928222656 -30
        -39.700462341308594 -18.301286697387695 -30 -34.54914855957031 -2.447174072265625 -30
        -49.948486328125 -49.84145736694336 -25 -44.84868621826172 -34.14588928222656 -25
        -39.700462341308594 -18.301286697387695 -25 -34.54914855957031 -2.447174072265625 -25
        -49.948486328125 -49.84145736694336 -20 -44.84868621826172 -34.14588928222656 -20
        -39.700462341308594 -18.301286697387695 -20 -34.54914855957031 -2.447174072265625 -20
        -49.948486328125 -49.84145736694336 -15 -44.84868621826172 -34.14588928222656 -15
        -39.700462341308594 -18.301286697387695 -15 -34.54914855957031 -2.447174072265625 -15
        -49.948486328125 -49.84145736694336 -10 -44.84868621826172 -34.14588928222656 -10
        -39.700462341308594 -18.301286697387695 -10 -34.54914855957031 -2.447174072265625 -10
        -49.948486328125 -49.84145736694336 -5 -44.84868621826172 -34.14588928222656 -5
        -39.700462341308594 -18.301286697387695 -5 -34.54914855957031 -2.447174072265625 -5
        -49.948486328125 -49.84145736694336 0 -44.84868621826172 -34.14588928222656 0
        -39.700462341308594 -18.301286697387695 0 -34.54914855957031 -2.447174072265625 0
        -50.051513671875 -49.84145736694336 -50 -55.15131378173828 -34.14588928222656 -50
        -60.299537658691406 -18.301286697387695 -50 -65.45085144042969 -2.447174072265625 -50
        -50.051513671875 -49.84145736694336 -45 -55.15131378173828 -34.14588928222656 -45
        -60.299537658691406 -18.301286697387695 -45 -65.45085144042969 -2.447174072265625 -45
        -50.051513671875 -49.84145736694336 -40 -55.15131378173828 -34.14588928222656 -40
        -60.299537658691406 -18.301286697387695 -40 -65.45085144042969 -2.447174072265625 -40
        -50.051513671875 -49.84145736694336 -35 -55.15131378173828 -34.14588928222656 -35
        -60.299537658691406 -18.301286697387695 -35 -65.45085144042969 -2.447174072265625 -35
        -50.051513671875 -49.84145736694336 -30 -55.15131378173828 -34.14588928222656 -30
        -60.299537658691406 -18.301286697387695 -30 -65.45085144042969 -2.447174072265625 -30
        -50.051513671875 -49.84145736694336 -25 -55.15131378173828 -34.14588928222656 -25
        -60.299537658691406 -18.301286697387695 -25 -65.45085144042969 -2.447174072265625 -25
        -50.051513671875 -49.84145736694336 -20 -55.15131378173828 -34.14588928222656 -20
        -60.299537658691406 -18.301286697387695 -20 -65.45085144042969 -2.447174072265625 -20
        -50.051513671875 -49.84145736694336 -15 -55.15131378173828 -34.14588928222656 -15
        -60.299537658691406 -18.301286697387695 -15 -65.45085144042969 -2.447174072265625 -15
        -50.051513671875 -49.84145736694336 -10 -55.15131378173828 -34.14588928222656 -10
        -60.299537658691406 -18.301286697387695 -10 -65.45085144042969 -2.447174072265625 -10
        -50.051513671875 -49.84145736694336 -5 -55.15131378173828 -34.14588928222656 -5
        -60.299537658691406 -18.301286697387695 -5 -65.45085144042969 -2.447174072265625 -5
        -50.051513671875 -49.84145736694336 0 -55.15131378173828 -34.14588928222656 0
        -60.299537658691406 -18.301286697387695 0 -65.45085144042969 -2.447174072265625 0
        -50.134864807128906 -49.902015686035156 -50 -63.48631286621094 -40.20161819458008 -50
        -76.96453857421875 -30.409116744995117 -50 -90.45085144042969 -20.610736846923828 -50
        -50.134864807128906 -49.902015686035156 -45 -63.48631286621094 -40.20161819458008 -45
        -76.96453857421875 -30.409116744995117 -45 -90.45085144042969 -20.610736846923828 -45
        -50.134864807128906 -49.902015686035156 -40 -63.48631286621094 -40.20161819458008 -40
        -76.96453857421875 -30.409116744995117 -40 -90.45085144042969 -20.610736846923828 -40
        -50.134864807128906 -49.902015686035156 -35 -63.48631286621094 -40.20161819458008 -35
        -76.96453857421875 -30.409116744995117 -35 -90.45085144042969 -20.610736846923828 -35
        -50.134864807128906 -49.902015686035156 -30 -63.48631286621094 -40.20161819458008 -30
        -76.96453857421875 -30.409116744995117 -30 -90.45085144042969 -20.610736846923828 -30
        -50.134864807128906 -49.902015686035156 -25 -63.48631286621094 -40.20161819458008 -25
        -76.96453857421875 -30.409116744995117 -25 -90.45085144042969 -20.610736846923828 -25
        -50.134864807128906 -49.902015686035156 -20 -63.48631286621094 -40.20161819458008 -20
        -76.96453857421875 -30.409116744995117 -20 -90.45085144042969 -20.610736846923828 -20
        -50.134864807128906 -49.902015686035156 -15 -63.48631286621094 -40.20161819458008 -15
        -76.96453857421875 -30.409116744995117 -15 -90.45085144042969 -20.610736846923828 -15
        -50.134864807128906 -49.902015686035156 -10 -63.48631286621094 -40.20161819458008 -10
        -76.96453857421875 -30.409116744995117 -10 -90.45085144042969 -20.610736846923828 -10
        -50.134864807128906 -49.902015686035156 -5 -63.48631286621094 -40.20161819458008 -5
        -76.96453857421875 -30.409116744995117 -5 -90.45085144042969 -20.610736846923828 -5
        -50.134864807128906 -49.902015686035156 0 -63.48631286621094 -40.20161819458008 0
        -76.96453857421875 -30.409116744995117 0 -90.45085144042969 -20.610736846923828 0
        -50.16669845581055 -50 -50 -66.66999816894531 -50 -50
        -83.33000183105469 -50 -50 -100 -50 -50
        -50.16669845581055 -50 -45 -66.66999816894531 -50 -45
        -83.33000183105469 -50 -45 -100 -50 -45
        -50.16669845581055 -50 -40 -66.66999816894531 -50 -40
        -83.33000183105469 -50 -40 -100 -50 -40
        -50.16669845581055 -50 -35 -66.66999816894531 -50 -35
        -83.33000183105469 -50 -35 -100 -50 -35
        -50.16669845581055 -50 -30 -66.66999816894531 -50 -30
        -83.33000183105469 -50 -30 -100 -50 -30
        -50.16669845581055 -50 -25 -66.66999816894531 -50 -25
        -83.33000183105469 -50 -25 -100 -50 -25
        -50.16669845581055 -50 -20 -66.66999816894531 -50 -20
        -83.33000183105469 -50 -20 -100 -50 -20
        -50.16669845581055 -50 -15 -66.66999816894531 -50 -15
        -83.33000183105469 -50 -15 -100 -50 -15
        -50.16669845581055 -50 -10 -66.66999816894531 -50 -10
        -83.33000183105469 -50 -10 -100 -50 -10
        -50.16669845581055 -50 -5 -66.66999816894531 -50 -5
        -83.33000183105469 -50 -5 -100 -50 -5
        -50.16669845581055 -50 0 -66.66999816894531 -50 0
        -83.33000183105469 -50 0 -100 -50 0
        -50.134864807128906 -50.097984313964844 -50 -63.48631286621094 -59.79838180541992 -50
        -76.96453857421875 -69.59088134765625 -50 -90.45085144042969 -79.3892593383789 -50
        -50.134864807128906 -50.097984313964844 -45 -63.48631286621094 -59.79838180541992 -45
        -76.96453857421875 -69.59088134765625 -45 -90.45085144042969 -79.3892593383789 -45
        -50.134864807128906 -50.097984313964844 -40 -63.48631286621094 -59.79838180541992 -40
        -76.96453857421875 -69.59088134765625 -40 -90.45085144042969 -79.3892593383789 -40
        -50.134864807128906 -50.097984313964844 -35 -63.48631286621094 -59.79838180541992 -35
        -76.96453857421875 -69.59088134765625 -35 -90.45085144042969 -79.3892593383789 -35
        -50.134864807128906 -50.097984313964844 -30 -63.48631286621094 -59.79838180541992 -30
        -76.96453857421875 -69.59088134765625 -30 -90.45085144042969 -79.3892593383789 -30
        -50.134864807128906 -50.097984313964844 -25 -63.48631286621094 -59.79838180541992 -25
        -76.96453857421875 -69.59088134765625 -25 -90.45085144042969 -79.3892593383789 -25
        -50.134864807128906 -50.097984313964844 -20 -63.48631286621094 -59.79838180541992 -20
        -76.96453857421875 -69.59088134765625 -20 -90.45085144042969 -79.3892593383789 -20
        -50.134864807128906 -50.097984313964844 -15 -63.48631286621094 -59.79838180541992 -15
        -76.96453857421875 -69.59088134765625 -15 -90.45085144042969 -79.3892593383789 -15
        -50.134864807128906 -50.097984313964844 -10 -63.48631286621094 -59.79838180541992 -10
        -76.96453857421875 -69.59088134765625 -10 -90.45085144042969 -79.3892593383789 -10
        -50.134864807128906 -50.097984313964844 -5 -63.48631286621094 -59.79838180541992 -5
        -76.96453857421875 -69.59088134765625 -5 -90.45085144042969 -79.3892593383789 -5
        -50.134864807128906 -50.097984313964844 0 -63.48631286621094 -59.79838180541992 0
        -76.96453857421875 -69.59088134765625 0 -90.45085144042969 -79.3892593383789 0
        -50.051513671875 -50.15854263305664 -50 -55.15131378173828 -65.85411071777344 -50
        -60.299537658691406 -81.69871520996094 -50 -65.45085144042969 -97.55282592773438 -50
        -50.051513671875 -50.15854263305664 -45 -55.15131378173828 -65.85411071777344 -45
        -60.299537658691406 -81.69871520996094 -45 -65.45085144042969 -97.55282592773438 -45
        -50.051513671875 -50.15854263305664 -40 -55.15131378173828 -65.85411071777344 -40
        -60.299537658691406 -81.69871520996094 -40 -65.45085144042969 -97.55282592773438 -40
        -50.051513671875 -50.15854263305664 -35 -55.15131378173828 -65.85411071777344 -35
        -60.299537658691406 -81.69871520996094 -35 -65.45085144042969 -97.55282592773438 -35
        -50.051513671875 -50.15854263305664 -30 -55.15131378173828 -65.85411071777344 -30
        -60.299537658691406 -81.69871520996094 -30 -65.45085144042969 -97.55282592773438 -30
        -50.051513671875 -50.15854263305664 -25 -55.15131378173828 -65.85411071777344 -25
        -60.299537658691406 -81.69871520996094 -25 -65.45085144042969 -97.55282592773438 -25
        -50.051513671875 -50.15854263305664 -20 -55.15131378173828 -65.85411071777344 -20
        -60.299537658691406 -81.69871520996094 -20 -65.45085144042969 -97.55282592773438 -20
        -50.051513671875 -50.15854263305664 -15 -55.15131378173828 -65.85411071777344 -15
        -60.299537658691406 -81.69871520996094 -15 -65.45085144042969 -97.55282592773438 -15
        -50.051513671875 -50.15854263305664 -10 -55.15131378173828 -65.85411071777344 -10
        -60.299537658691406 -81.69871520996094 -10 -65.45085144042969 -97.55282592773438 -10
        -50.051513671875 -50.15854263305664 -5 -55.15131378173828 -65.85411071777344 -5
        -60.299537658691406 -81.69871520996094 -5 -65.45085144042969 -97.55282592773438 -5
        -50.051513671875 -50.15854263305664 0 -55.15131378173828 -65.85411071777344 0
        -60.299537658691406 -81.69871520996094 0 -65.45085144042969 -97.55282592773438 0
        -49.948486328125 -50.15854263305664 -50 -44.84868621826172 -65.85411071777344 -50
        -39.700462341308594 -81.69871520996094 -50 -34.54914855957031 -97.55282592773438 -50
        -49.948486328125 -50.15854263305664 -45 -44.84868621826172 -65.85411071777344 -45
        -39.700462341308594 -81.69871520996094 -45 -34.54914855957031 -97.55282592773438 -45
        -49.948486328125 -50.15854263305664 -40 -44.84868621826172 -65.85411071777344 -40
        -39.700462341308594 -81.69871520996094 -40 -34.54914855957031 -97.55282592773438 -40
        -49.948486328125 -50.15854263305664 -35 -44.84868621826172 -65.85411071777344 -35
        -39.700462341308594 -81.69871520996094 -35 -34.54914855957031 -97.55282592773438 -35
        -49.948486328125 -50.15854263305664 -30 -44.84868621826172 -65.85411071777344 -30
        -39.700462341308594 -81.69871520996094 -30 -34.54914855957031 -97.55282592773438 -30
        -49.948486328125 -50.15854263305664 -25 -44.84868621826172 -65.85411071777344 -25
        -39.700462341308594 -81.69871520996094 -25 -34.54914855957031 -97.55282592773438 -25
        -49.948486328125 -50.15854263305664 -20 -44.84868621826172 -65.85411071777344 -20
        -39.700462341308594 -81.69871520996094 -20 -34.54914855957031 -97.55282592773438 -20
        -49.948486328125 -50.15854263305664 -15 -44.84868621826172 -65.85411071777344 -15
        -39.700462341308594 -81.69871520996094 -15 -34.54914855957031 -97.55282592773438 -15
        -49.948486328125 -50.15854263305664 -10 -44.84868621826172 -65.85411071777344 -10
        -39.700462341308594 -81.69871520996094 -10 -34.54914855957031 -97.55282592773438 -10
        -49.948486328125 -50.15854263305664 -5 -44.84868621826172 -65.85411071777344 -5
        -39.700462341308594 -81.69871520996094 -5 -34.54914855957031 -97.55282592773438 -5
        -49.948486328125 -50.15854263305664 0 -44.84868621826172 -65.85411071777344 0
        -39.700462341308594 -81.69871520996094 0 -34.54914855957031 -97.55282592773438 0
        -49.865135192871094 -50.097984313964844 -50 -36.51368713378906 -59.79838180541992 -50
        -23.035463333129883 -69.59088134765625 -50 -9.549150466918945 -79.3892593383789 -50
        -49.865135192871094 -50.097984313964844 -45 -36.51368713378906 -59.79838180541992 -45
        -23.035463333129883 -69.59088134765625 -45 -9.549150466918945 -79.3892593383789 -45
        -49.865135192871094 -50.097984313964844 -40 -36.51368713378906 -59.79838180541992 -40
        -23.035463333129883 -69.59088134765625 -40 -9.549150466918945 -79.3892593383789 -40
        -49.865135192871094 -50.097984313964844 -35 -36.51368713378906 -59.79838180541992 -35
        -23.035463333129883 -69.59088134765625 -35 -9.549150466918945 -79.3892593383789 -35
        -49.865135192871094 -50.097984313964844 -30 -36.51368713378906 -59.79838180541992 -30
        -23.035463333129883 -69.59088134765625 -30 -9.549150466918945 -79.3892593383789 -30
        -49.865135192871094 -50.097984313964844 -25 -36.51368713378906 -59.79838180541992 -25
        -23.035463333129883 -69.59088134765625 -25 -9.549150466918945 -79.3892593383789 -25
        -49.865135192871094 -50.097984313964844 -20 -36.51368713378906 -59.79838180541992 -20
        -23.035463333129883 -69.59088134765625 -20 -9.549150466918945 -79.3892593383789 -20
        -49.865135192871094 -50.097984313964844 -15 -36.51368713378906 -59.79838180541992 -15
        -23.035463333129883 -69.59088134765625 -15 -9.549150466918945 -79.3892593383789 -15
        -49.865135192871094 -50.097984313964844 -10 -36.51368713378906 -59.79838180541992 -10
        -23.035463333129883 -69.59088134765625 -10 -9.549150466918945 -79.3892593383789 -10
        -49.865135192871094 -50.097984313964844 -5 -36.51368713378906 -59.79838180541992 -5
        -23.035463333129883 -69.59088134765625 -5 -9.549150466918945 -79.3892593383789 -5
        -49.865135192871094 -50.097984313964844 0 -36.51368713378906 -59.79838180541992 0
        -23.035463333129883 -69.59088134765625 0 -9.549150466918945 -79.3892593383789 0
        -49.83330154418945 -50 -50 -33.33000183105469 -50 -50
        -16.670000076293945 -50 -50 0 -50 -50
        -49.83330154418945 -50 -45 -33.33000183105469 -50 -45
        -16.670000076293945 -50 -45 0 -50 -45
        -49.83330154418945 -50 -40 -33.33000183105469 -50 -40
        -16.670000076293945 -50 -40 0 -50 -40
        -49.83330154418945 -50 -35 -33.33000183105469 -50 -35
        -16.670000076293945 -50 -35 0 -50 -35
        -49.83330154418945 -50 -30 -33.33000183105469 -50 -30
        -16.670000076293945 -50 -30 0 -50 -30
        -49.83330154418945 -50 -25 -33.33000183105469 -50 -25
        -16.670000076293945 -50 -25 0 -50 -25
        -49.83330154418945 -50 -20 -33.33000183105469 -50 -20
        -16.670000076293945 -50 -20 0 -50 -20
        -49.83330154418945 -50 -15 -33.33000183105469 -50 -15
        -16.670000076293945 -50 -15 0 -50 -15
        -49.83330154418945 -50 -10 -33.33000183105469 -50 -10
        -16.670000076293945 -50 -10 0 -50 -10
        -49.83330154418945 -50 -5 -33.33000183105469 -50 -5
        -16.670000076293945 -50 -5 0 -50 -5
        -49.83330154418945 -50 0 -33.33000183105469 -50 0
        -16.670000076293945 -50 0 0 -50 0
        <InformationKey name="L2_NORM_RANGE" location="vtkDataArray" length="2">
          <Value index="0">
            22.715385711
          </Value>
          <Value index="1">
            130.32271876
          </Value>
        </InformationKey>
      </DataArray>
    </Points>
  </Piece>
  </StructuredGrid>
</VTKFile>
