<?xml version="1.0"?>
<VTKFile type="StructuredGrid" version="0.1" byte_order="LittleEndian" header_type="UInt32" compressor="vtkZLibDataCompressor">
  <StructuredGrid WholeExtent="0 3 0 10 0 10">
    <FieldData>
      <Array type="String" Name="creationTime" NumberOfTuples="1" format="ascii">
        77 111 110 32 78 111 118 32 49 56 32 49 52 58 52 49 58 51 49 32 50 48 49 57 0
      </Array>
      <Array type="String" Name="author" NumberOfTuples="1" format="ascii">
        102 97 98 98 114 109 97 0
      </Array>
      <Array type="String" Name="host" NumberOfTuples="1" format="ascii">
        45 87 45 54 57 56 49 54 0
      </Array>
      <Array type="String" Name="path" NumberOfTuples="1" format="ascii">
        88 58 92 0
      </Array>
    </FieldData>
  <Piece Extent="0 3 0 10 0 10">
    <PointData>
    </PointData>
    <CellData>
      <DataArray type="Float64" Name="Value - Total" format="ascii" RangeMin="0" RangeMax="0">
        0 0 0 0 0 0
        0 0 0 0 0 0
        0 0 0 0 0 0
        0 0 0 0 0 0
        0 0 0 0 0 0
        0 0 0 0 0 0
        0 0 0 0 0 0
        0 0 0 0 0 0
        0 0 0 0 0 0
        0 0 0 0 0 0
        0 0 0 0 0 0
        0 0 0 0 0 0
        0 0 0 0 0 0
        0 0 0 0 0 0
        0 0 0 0 0 0
        0 0 0 0 0 0
        0 0 0 0 0 0
        0 0 0 0 0 0
        0 0 0 0 0 0
        0 0 0 0 0 0
        0 0 0 0 0 0
        0 0 0 0 0 0
        0 0 0 0 0 0
        0 0 0 0 0 0
        0 0 0 0 0 0
        0 0 0 0 0 0
        0 0 0 0 0 0
        0 0 0 0 0 0
        0 0 0 0 0 0
        0 0 0 0 0 0
        0 0 0 0 0 0
        0 0 0 0 0 0
        0 0 0 0 0 0
        0 0 0 0 0 0
        0 0 0 0 0 0
        0 0 0 0 0 0
        0 0 0 0 0 0
        0 0 0 0 0 0
        0 0 0 0 0 0
        0 0 0 0 0 0
        0 0 0 0 0 0
        0 0 0 0 0 0
        0 0 0 0 0 0
        0 0 0 0 0 0
        0 0 0 0 0 0
        0 0 0 0 0 0
        0 0 0 0 0 0
        0 0 0 0 0 0
        0 0 0 0 0 0
        0 0 0 0 0 0
      </DataArray>
      <DataArray type="Float64" Name="Error - Total" format="ascii" RangeMin="0" RangeMax="0">
        0 0 0 0 0 0
        0 0 0 0 0 0
        0 0 0 0 0 0
        0 0 0 0 0 0
        0 0 0 0 0 0
        0 0 0 0 0 0
        0 0 0 0 0 0
        0 0 0 0 0 0
        0 0 0 0 0 0
        0 0 0 0 0 0
        0 0 0 0 0 0
        0 0 0 0 0 0
        0 0 0 0 0 0
        0 0 0 0 0 0
        0 0 0 0 0 0
        0 0 0 0 0 0
        0 0 0 0 0 0
        0 0 0 0 0 0
        0 0 0 0 0 0
        0 0 0 0 0 0
        0 0 0 0 0 0
        0 0 0 0 0 0
        0 0 0 0 0 0
        0 0 0 0 0 0
        0 0 0 0 0 0
        0 0 0 0 0 0
        0 0 0 0 0 0
        0 0 0 0 0 0
        0 0 0 0 0 0
        0 0 0 0 0 0
        0 0 0 0 0 0
        0 0 0 0 0 0
        0 0 0 0 0 0
        0 0 0 0 0 0
        0 0 0 0 0 0
        0 0 0 0 0 0
        0 0 0 0 0 0
        0 0 0 0 0 0
        0 0 0 0 0 0
        0 0 0 0 0 0
        0 0 0 0 0 0
        0 0 0 0 0 0
        0 0 0 0 0 0
        0 0 0 0 0 0
        0 0 0 0 0 0
        0 0 0 0 0 0
        0 0 0 0 0 0
        0 0 0 0 0 0
        0 0 0 0 0 0
        0 0 0 0 0 0
      </DataArray>
    </CellData>
    <Points>
      <DataArray type="Float32" Name="Points" NumberOfComponents="3" format="ascii" RangeMin="22.715385711" RangeMax="130.32271876">
        -49.833301544 -50 -50 -33.330001831 -50 -50
        -16.670000076 -50 -50 0 -50 -50
        -49.833301544 -50 -45 -33.330001831 -50 -45
        -16.670000076 -50 -45 0 -50 -45
        -49.833301544 -50 -40 -33.330001831 -50 -40
        -16.670000076 -50 -40 0 -50 -40
        -49.833301544 -50 -35 -33.330001831 -50 -35
        -16.670000076 -50 -35 0 -50 -35
        -49.833301544 -50 -30 -33.330001831 -50 -30
        -16.670000076 -50 -30 0 -50 -30
        -49.833301544 -50 -25 -33.330001831 -50 -25
        -16.670000076 -50 -25 0 -50 -25
        -49.833301544 -50 -20 -33.330001831 -50 -20
        -16.670000076 -50 -20 0 -50 -20
        -49.833301544 -50 -15 -33.330001831 -50 -15
        -16.670000076 -50 -15 0 -50 -15
        -49.833301544 -50 -10 -33.330001831 -50 -10
        -16.670000076 -50 -10 0 -50 -10
        -49.833301544 -50 -5 -33.330001831 -50 -5
        -16.670000076 -50 -5 0 -50 -5
        -49.833301544 -50 0 -33.330001831 -50 0
        -16.670000076 -50 0 0 -50 0
        -49.865135193 -49.902015686 -50 -36.513687134 -40.201618195 -50
        -23.035463333 -30.409116745 -50 -9.5491504669 -20.610736847 -50
        -49.865135193 -49.902015686 -45 -36.513687134 -40.201618195 -45
        -23.035463333 -30.409116745 -45 -9.5491504669 -20.610736847 -45
        -49.865135193 -49.902015686 -40 -36.513687134 -40.201618195 -40
        -23.035463333 -30.409116745 -40 -9.5491504669 -20.610736847 -40
        -49.865135193 -49.902015686 -35 -36.513687134 -40.201618195 -35
        -23.035463333 -30.409116745 -35 -9.5491504669 -20.610736847 -35
        -49.865135193 -49.902015686 -30 -36.513687134 -40.201618195 -30
        -23.035463333 -30.409116745 -30 -9.5491504669 -20.610736847 -30
        -49.865135193 -49.902015686 -25 -36.513687134 -40.201618195 -25
        -23.035463333 -30.409116745 -25 -9.5491504669 -20.610736847 -25
        -49.865135193 -49.902015686 -20 -36.513687134 -40.201618195 -20
        -23.035463333 -30.409116745 -20 -9.5491504669 -20.610736847 -20
        -49.865135193 -49.902015686 -15 -36.513687134 -40.201618195 -15
        -23.035463333 -30.409116745 -15 -9.5491504669 -20.610736847 -15
        -49.865135193 -49.902015686 -10 -36.513687134 -40.201618195 -10
        -23.035463333 -30.409116745 -10 -9.5491504669 -20.610736847 -10
        -49.865135193 -49.902015686 -5 -36.513687134 -40.201618195 -5
        -23.035463333 -30.409116745 -5 -9.5491504669 -20.610736847 -5
        -49.865135193 -49.902015686 0 -36.513687134 -40.201618195 0
        -23.035463333 -30.409116745 0 -9.5491504669 -20.610736847 0
        -49.948486328 -49.841457367 -50 -44.848686218 -34.145889282 -50
        -39.700462341 -18.301286697 -50 -34.54914856 -2.4471740723 -50
        -49.948486328 -49.841457367 -45 -44.848686218 -34.145889282 -45
        -39.700462341 -18.301286697 -45 -34.54914856 -2.4471740723 -45
        -49.948486328 -49.841457367 -40 -44.848686218 -34.145889282 -40
        -39.700462341 -18.301286697 -40 -34.54914856 -2.4471740723 -40
        -49.948486328 -49.841457367 -35 -44.848686218 -34.145889282 -35
        -39.700462341 -18.301286697 -35 -34.54914856 -2.4471740723 -35
        -49.948486328 -49.841457367 -30 -44.848686218 -34.145889282 -30
        -39.700462341 -18.301286697 -30 -34.54914856 -2.4471740723 -30
        -49.948486328 -49.841457367 -25 -44.848686218 -34.145889282 -25
        -39.700462341 -18.301286697 -25 -34.54914856 -2.4471740723 -25
        -49.948486328 -49.841457367 -20 -44.848686218 -34.145889282 -20
        -39.700462341 -18.301286697 -20 -34.54914856 -2.4471740723 -20
        -49.948486328 -49.841457367 -15 -44.848686218 -34.145889282 -15
        -39.700462341 -18.301286697 -15 -34.54914856 -2.4471740723 -15
        -49.948486328 -49.841457367 -10 -44.848686218 -34.145889282 -10
        -39.700462341 -18.301286697 -10 -34.54914856 -2.4471740723 -10
        -49.948486328 -49.841457367 -5 -44.848686218 -34.145889282 -5
        -39.700462341 -18.301286697 -5 -34.54914856 -2.4471740723 -5
        -49.948486328 -49.841457367 0 -44.848686218 -34.145889282 0
        -39.700462341 -18.301286697 0 -34.54914856 -2.4471740723 0
        -50.051513672 -49.841457367 -50 -55.151313782 -34.145889282 -50
        -60.299537659 -18.301286697 -50 -65.45085144 -2.4471740723 -50
        -50.051513672 -49.841457367 -45 -55.151313782 -34.145889282 -45
        -60.299537659 -18.301286697 -45 -65.45085144 -2.4471740723 -45
        -50.051513672 -49.841457367 -40 -55.151313782 -34.145889282 -40
        -60.299537659 -18.301286697 -40 -65.45085144 -2.4471740723 -40
        -50.051513672 -49.841457367 -35 -55.151313782 -34.145889282 -35
        -60.299537659 -18.301286697 -35 -65.45085144 -2.4471740723 -35
        -50.051513672 -49.841457367 -30 -55.151313782 -34.145889282 -30
        -60.299537659 -18.301286697 -30 -65.45085144 -2.4471740723 -30
        -50.051513672 -49.841457367 -25 -55.151313782 -34.145889282 -25
        -60.299537659 -18.301286697 -25 -65.45085144 -2.4471740723 -25
        -50.051513672 -49.841457367 -20 -55.151313782 -34.145889282 -20
        -60.299537659 -18.301286697 -20 -65.45085144 -2.4471740723 -20
        -50.051513672 -49.841457367 -15 -55.151313782 -34.145889282 -15
        -60.299537659 -18.301286697 -15 -65.45085144 -2.4471740723 -15
        -50.051513672 -49.841457367 -10 -55.151313782 -34.145889282 -10
        -60.299537659 -18.301286697 -10 -65.45085144 -2.4471740723 -10
        -50.051513672 -49.841457367 -5 -55.151313782 -34.145889282 -5
        -60.299537659 -18.301286697 -5 -65.45085144 -2.4471740723 -5
        -50.051513672 -49.841457367 0 -55.151313782 -34.145889282 0
        -60.299537659 -18.301286697 0 -65.45085144 -2.4471740723 0
        -50.134864807 -49.902015686 -50 -63.486312866 -40.201618195 -50
        -76.964538574 -30.409116745 -50 -90.45085144 -20.610736847 -50
        -50.134864807 -49.902015686 -45 -63.486312866 -40.201618195 -45
        -76.964538574 -30.409116745 -45 -90.45085144 -20.610736847 -45
        -50.134864807 -49.902015686 -40 -63.486312866 -40.201618195 -40
        -76.964538574 -30.409116745 -40 -90.45085144 -20.610736847 -40
        -50.134864807 -49.902015686 -35 -63.486312866 -40.201618195 -35
        -76.964538574 -30.409116745 -35 -90.45085144 -20.610736847 -35
        -50.134864807 -49.902015686 -30 -63.486312866 -40.201618195 -30
        -76.964538574 -30.409116745 -30 -90.45085144 -20.610736847 -30
        -50.134864807 -49.902015686 -25 -63.486312866 -40.201618195 -25
        -76.964538574 -30.409116745 -25 -90.45085144 -20.610736847 -25
        -50.134864807 -49.902015686 -20 -63.486312866 -40.201618195 -20
        -76.964538574 -30.409116745 -20 -90.45085144 -20.610736847 -20
        -50.134864807 -49.902015686 -15 -63.486312866 -40.201618195 -15
        -76.964538574 -30.409116745 -15 -90.45085144 -20.610736847 -15
        -50.134864807 -49.902015686 -10 -63.486312866 -40.201618195 -10
        -76.964538574 -30.409116745 -10 -90.45085144 -20.610736847 -10
        -50.134864807 -49.902015686 -5 -63.486312866 -40.201618195 -5
        -76.964538574 -30.409116745 -5 -90.45085144 -20.610736847 -5
        -50.134864807 -49.902015686 0 -63.486312866 -40.201618195 0
        -76.964538574 -30.409116745 0 -90.45085144 -20.610736847 0
        -50.166698456 -50 -50 -66.669998169 -50 -50
        -83.330001831 -50 -50 -100 -50 -50
        -50.166698456 -50 -45 -66.669998169 -50 -45
        -83.330001831 -50 -45 -100 -50 -45
        -50.166698456 -50 -40 -66.669998169 -50 -40
        -83.330001831 -50 -40 -100 -50 -40
        -50.166698456 -50 -35 -66.669998169 -50 -35
        -83.330001831 -50 -35 -100 -50 -35
        -50.166698456 -50 -30 -66.669998169 -50 -30
        -83.330001831 -50 -30 -100 -50 -30
        -50.166698456 -50 -25 -66.669998169 -50 -25
        -83.330001831 -50 -25 -100 -50 -25
        -50.166698456 -50 -20 -66.669998169 -50 -20
        -83.330001831 -50 -20 -100 -50 -20
        -50.166698456 -50 -15 -66.669998169 -50 -15
        -83.330001831 -50 -15 -100 -50 -15
        -50.166698456 -50 -10 -66.669998169 -50 -10
        -83.330001831 -50 -10 -100 -50 -10
        -50.166698456 -50 -5 -66.669998169 -50 -5
        -83.330001831 -50 -5 -100 -50 -5
        -50.166698456 -50 0 -66.669998169 -50 0
        -83.330001831 -50 0 -100 -50 0
        -50.134864807 -50.097984314 -50 -63.486312866 -59.798381805 -50
        -76.964538574 -69.590881348 -50 -90.45085144 -79.389259338 -50
        -50.134864807 -50.097984314 -45 -63.486312866 -59.798381805 -45
        -76.964538574 -69.590881348 -45 -90.45085144 -79.389259338 -45
        -50.134864807 -50.097984314 -40 -63.486312866 -59.798381805 -40
        -76.964538574 -69.590881348 -40 -90.45085144 -79.389259338 -40
        -50.134864807 -50.097984314 -35 -63.486312866 -59.798381805 -35
        -76.964538574 -69.590881348 -35 -90.45085144 -79.389259338 -35
        -50.134864807 -50.097984314 -30 -63.486312866 -59.798381805 -30
        -76.964538574 -69.590881348 -30 -90.45085144 -79.389259338 -30
        -50.134864807 -50.097984314 -25 -63.486312866 -59.798381805 -25
        -76.964538574 -69.590881348 -25 -90.45085144 -79.389259338 -25
        -50.134864807 -50.097984314 -20 -63.486312866 -59.798381805 -20
        -76.964538574 -69.590881348 -20 -90.45085144 -79.389259338 -20
        -50.134864807 -50.097984314 -15 -63.486312866 -59.798381805 -15
        -76.964538574 -69.590881348 -15 -90.45085144 -79.389259338 -15
        -50.134864807 -50.097984314 -10 -63.486312866 -59.798381805 -10
        -76.964538574 -69.590881348 -10 -90.45085144 -79.389259338 -10
        -50.134864807 -50.097984314 -5 -63.486312866 -59.798381805 -5
        -76.964538574 -69.590881348 -5 -90.45085144 -79.389259338 -5
        -50.134864807 -50.097984314 0 -63.486312866 -59.798381805 0
        -76.964538574 -69.590881348 0 -90.45085144 -79.389259338 0
        -50.051513672 -50.158542633 -50 -55.151313782 -65.854110718 -50
        -60.299537659 -81.69871521 -50 -65.45085144 -97.552825928 -50
        -50.051513672 -50.158542633 -45 -55.151313782 -65.854110718 -45
        -60.299537659 -81.69871521 -45 -65.45085144 -97.552825928 -45
        -50.051513672 -50.158542633 -40 -55.151313782 -65.854110718 -40
        -60.299537659 -81.69871521 -40 -65.45085144 -97.552825928 -40
        -50.051513672 -50.158542633 -35 -55.151313782 -65.854110718 -35
        -60.299537659 -81.69871521 -35 -65.45085144 -97.552825928 -35
        -50.051513672 -50.158542633 -30 -55.151313782 -65.854110718 -30
        -60.299537659 -81.69871521 -30 -65.45085144 -97.552825928 -30
        -50.051513672 -50.158542633 -25 -55.151313782 -65.854110718 -25
        -60.299537659 -81.69871521 -25 -65.45085144 -97.552825928 -25
        -50.051513672 -50.158542633 -20 -55.151313782 -65.854110718 -20
        -60.299537659 -81.69871521 -20 -65.45085144 -97.552825928 -20
        -50.051513672 -50.158542633 -15 -55.151313782 -65.854110718 -15
        -60.299537659 -81.69871521 -15 -65.45085144 -97.552825928 -15
        -50.051513672 -50.158542633 -10 -55.151313782 -65.854110718 -10
        -60.299537659 -81.69871521 -10 -65.45085144 -97.552825928 -10
        -50.051513672 -50.158542633 -5 -55.151313782 -65.854110718 -5
        -60.299537659 -81.69871521 -5 -65.45085144 -97.552825928 -5
        -50.051513672 -50.158542633 0 -55.151313782 -65.854110718 0
        -60.299537659 -81.69871521 0 -65.45085144 -97.552825928 0
        -49.948486328 -50.158542633 -50 -44.848686218 -65.854110718 -50
        -39.700462341 -81.69871521 -50 -34.54914856 -97.552825928 -50
        -49.948486328 -50.158542633 -45 -44.848686218 -65.854110718 -45
        -39.700462341 -81.69871521 -45 -34.54914856 -97.552825928 -45
        -49.948486328 -50.158542633 -40 -44.848686218 -65.854110718 -40
        -39.700462341 -81.69871521 -40 -34.54914856 -97.552825928 -40
        -49.948486328 -50.158542633 -35 -44.848686218 -65.854110718 -35
        -39.700462341 -81.69871521 -35 -34.54914856 -97.552825928 -35
        -49.948486328 -50.158542633 -30 -44.848686218 -65.854110718 -30
        -39.700462341 -81.69871521 -30 -34.54914856 -97.552825928 -30
        -49.948486328 -50.158542633 -25 -44.848686218 -65.854110718 -25
        -39.700462341 -81.69871521 -25 -34.54914856 -97.552825928 -25
        -49.948486328 -50.158542633 -20 -44.848686218 -65.854110718 -20
        -39.700462341 -81.69871521 -20 -34.54914856 -97.552825928 -20
        -49.948486328 -50.158542633 -15 -44.848686218 -65.854110718 -15
        -39.700462341 -81.69871521 -15 -34.54914856 -97.552825928 -15
        -49.948486328 -50.158542633 -10 -44.848686218 -65.854110718 -10
        -39.700462341 -81.69871521 -10 -34.54914856 -97.552825928 -10
        -49.948486328 -50.158542633 -5 -44.848686218 -65.854110718 -5
        -39.700462341 -81.69871521 -5 -34.54914856 -97.552825928 -5
        -49.948486328 -50.158542633 0 -44.848686218 -65.854110718 0
        -39.700462341 -81.69871521 0 -34.54914856 -97.552825928 0
        -49.865135193 -50.097984314 -50 -36.513687134 -59.798381805 -50
        -23.035463333 -69.590881348 -50 -9.5491504669 -79.389259338 -50
        -49.865135193 -50.097984314 -45 -36.513687134 -59.798381805 -45
        -23.035463333 -69.590881348 -45 -9.5491504669 -79.389259338 -45
        -49.865135193 -50.097984314 -40 -36.513687134 -59.798381805 -40
        -23.035463333 -69.590881348 -40 -9.5491504669 -79.389259338 -40
        -49.865135193 -50.097984314 -35 -36.513687134 -59.798381805 -35
        -23.035463333 -69.590881348 -35 -9.5491504669 -79.389259338 -35
        -49.865135193 -50.097984314 -30 -36.513687134 -59.798381805 -30
        -23.035463333 -69.590881348 -30 -9.5491504669 -79.389259338 -30
        -49.865135193 -50.097984314 -25 -36.513687134 -59.798381805 -25
        -23.035463333 -69.590881348 -25 -9.5491504669 -79.389259338 -25
        -49.865135193 -50.097984314 -20 -36.513687134 -59.798381805 -20
        -23.035463333 -69.590881348 -20 -9.5491504669 -79.389259338 -20
        -49.865135193 -50.097984314 -15 -36.513687134 -59.798381805 -15
        -23.035463333 -69.590881348 -15 -9.5491504669 -79.389259338 -15
        -49.865135193 -50.097984314 -10 -36.513687134 -59.798381805 -10
        -23.035463333 -69.590881348 -10 -9.5491504669 -79.389259338 -10
        -49.865135193 -50.097984314 -5 -36.513687134 -59.798381805 -5
        -23.035463333 -69.590881348 -5 -9.5491504669 -79.389259338 -5
        -49.865135193 -50.097984314 0 -36.513687134 -59.798381805 0
        -23.035463333 -69.590881348 0 -9.5491504669 -79.389259338 0
        -49.833301544 -50 -50 -33.330001831 -50 -50
        -16.670000076 -50 -50 0 -50 -50
        -49.833301544 -50 -45 -33.330001831 -50 -45
        -16.670000076 -50 -45 0 -50 -45
        -49.833301544 -50 -40 -33.330001831 -50 -40
        -16.670000076 -50 -40 0 -50 -40
        -49.833301544 -50 -35 -33.330001831 -50 -35
        -16.670000076 -50 -35 0 -50 -35
        -49.833301544 -50 -30 -33.330001831 -50 -30
        -16.670000076 -50 -30 0 -50 -30
        -49.833301544 -50 -25 -33.330001831 -50 -25
        -16.670000076 -50 -25 0 -50 -25
        -49.833301544 -50 -20 -33.330001831 -50 -20
        -16.670000076 -50 -20 0 -50 -20
        -49.833301544 -50 -15 -33.330001831 -50 -15
        -16.670000076 -50 -15 0 -50 -15
        -49.833301544 -50 -10 -33.330001831 -50 -10
        -16.670000076 -50 -10 0 -50 -10
        -49.833301544 -50 -5 -33.330001831 -50 -5
        -16.670000076 -50 -5 0 -50 -5
        -49.833301544 -50 0 -33.330001831 -50 0
        -16.670000076 -50 0 0 -50 0
      </DataArray>
    </Points>
  </Piece>
  </StructuredGrid>
</VTKFile>
