<?xml version="1.0"?>
<VTKFile type="StructuredGrid" version="0.1" byte_order="LittleEndian" header_type="UInt32" compressor="vtkZLibDataCompressor">
  <StructuredGrid WholeExtent="0 3 0 10 0 10">
    <FieldData>
      <Array type="String" Name="creationTime" NumberOfTuples="1" format="ascii">
        77 111 110 32 78 111 118 32 49 56 32 49 52 58 52 49 58 51 49 32 50 48 49 57 0
      </Array>
      <Array type="String" Name="author" NumberOfTuples="1" format="ascii">
        102 97 98 98 114 109 97 0
      </Array>
      <Array type="String" Name="host" NumberOfTuples="1" format="ascii">
        45 87 45 54 57 56 49 54 0
      </Array>
      <Array type="String" Name="path" NumberOfTuples="1" format="ascii">
        88 58 92 0
      </Array>
    </FieldData>
  <Piece Extent="0 3 0 10 0 10">
    <PointData>
    </PointData>
    <CellData>
      <DataArray type="Float64" Name="Value - Total" format="ascii" RangeMin="0" RangeMax="0">
        0 0 0 0 0 0
        0 0 0 0 0 0
        0 0 0 0 0 0
        0 0 0 0 0 0
        0 0 0 0 0 0
        0 0 0 0 0 0
        0 0 0 0 0 0
        0 0 0 0 0 0
        0 0 0 0 0 0
        0 0 0 0 0 0
        0 0 0 0 0 0
        0 0 0 0 0 0
        0 0 0 0 0 0
        0 0 0 0 0 0
        0 0 0 0 0 0
        0 0 0 0 0 0
        0 0 0 0 0 0
        0 0 0 0 0 0
        0 0 0 0 0 0
        0 0 0 0 0 0
        0 0 0 0 0 0
        0 0 0 0 0 0
        0 0 0 0 0 0
        0 0 0 0 0 0
        0 0 0 0 0 0
        0 0 0 0 0 0
        0 0 0 0 0 0
        0 0 0 0 0 0
        0 0 0 0 0 0
        0 0 0 0 0 0
        0 0 0 0 0 0
        0 0 0 0 0 0
        0 0 0 0 0 0
        0 0 0 0 0 0
        0 0 0 0 0 0
        0 0 0 0 0 0
        0 0 0 0 0 0
        0 0 0 0 0 0
        0 0 0 0 0 0
        0 0 0 0 0 0
        0 0 0 0 0 0
        0 0 0 0 0 0
        0 0 0 0 0 0
        0 0 0 0 0 0
        0 0 0 0 0 0
        0 0 0 0 0 0
        0 0 0 0 0 0
        0 0 0 0 0 0
        0 0 0 0 0 0
        0 0 0 0 0 0
      </DataArray>
      <DataArray type="Float64" Name="Error - Total" format="ascii" RangeMin="0" RangeMax="0">
        0 0 0 0 0 0
        0 0 0 0 0 0
        0 0 0 0 0 0
        0 0 0 0 0 0
        0 0 0 0 0 0
        0 0 0 0 0 0
        0 0 0 0 0 0
        0 0 0 0 0 0
        0 0 0 0 0 0
        0 0 0 0 0 0
        0 0 0 0 0 0
        0 0 0 0 0 0
        0 0 0 0 0 0
        0 0 0 0 0 0
        0 0 0 0 0 0
        0 0 0 0 0 0
        0 0 0 0 0 0
        0 0 0 0 0 0
        0 0 0 0 0 0
        0 0 0 0 0 0
        0 0 0 0 0 0
        0 0 0 0 0 0
        0 0 0 0 0 0
        0 0 0 0 0 0
        0 0 0 0 0 0
        0 0 0 0 0 0
        0 0 0 0 0 0
        0 0 0 0 0 0
        0 0 0 0 0 0
        0 0 0 0 0 0
        0 0 0 0 0 0
        0 0 0 0 0 0
        0 0 0 0 0 0
        0 0 0 0 0 0
        0 0 0 0 0 0
        0 0 0 0 0 0
        0 0 0 0 0 0
        0 0 0 0 0 0
        0 0 0 0 0 0
        0 0 0 0 0 0
        0 0 0 0 0 0
        0 0 0 0 0 0
        0 0 0 0 0 0
        0 0 0 0 0 0
        0 0 0 0 0 0
        0 0 0 0 0 0
        0 0 0 0 0 0
        0 0 0 0 0 0
        0 0 0 0 0 0
        0 0 0 0 0 0
      </DataArray>
    </CellData>
    <Points>
      <DataArray type="Float32" Name="Points" NumberOfComponents="3" format="ascii" RangeMin="22.715385711" RangeMax="130.32271876">
        -50 -50 -50.166698456 -50 -50 -66.669998169
        -50 -50 -83.330001831 -50 -50 -100
        -45 -50 -50.166698456 -45 -50 -66.669998169
        -45 -50 -83.330001831 -45 -50 -100
        -40 -50 -50.166698456 -40 -50 -66.669998169
        -40 -50 -83.330001831 -40 -50 -100
        -35 -50 -50.166698456 -35 -50 -66.669998169
        -35 -50 -83.330001831 -35 -50 -100
        -30 -50 -50.166698456 -30 -50 -66.669998169
        -30 -50 -83.330001831 -30 -50 -100
        -25 -50 -50.166698456 -25 -50 -66.669998169
        -25 -50 -83.330001831 -25 -50 -100
        -20 -50 -50.166698456 -20 -50 -66.669998169
        -20 -50 -83.330001831 -20 -50 -100
        -15 -50 -50.166698456 -15 -50 -66.669998169
        -15 -50 -83.330001831 -15 -50 -100
        -10 -50 -50.166698456 -10 -50 -66.669998169
        -10 -50 -83.330001831 -10 -50 -100
        -5 -50 -50.166698456 -5 -50 -66.669998169
        -5 -50 -83.330001831 -5 -50 -100
        1.4210854715e-14 -50 -50.166698456 1.4210854715e-14 -50 -66.669998169
        1.4210854715e-14 -50 -83.330001831 1.4210854715e-14 -50 -100
        -50 -49.902015686 -50.134864807 -50 -40.201618195 -63.486312866
        -50 -30.409116745 -76.964538574 -50 -20.610736847 -90.45085144
        -45 -49.902015686 -50.134864807 -45 -40.201618195 -63.486312866
        -45 -30.409116745 -76.964538574 -45 -20.610736847 -90.45085144
        -40 -49.902015686 -50.134864807 -40 -40.201618195 -63.486312866
        -40 -30.409116745 -76.964538574 -40 -20.610736847 -90.45085144
        -35 -49.902015686 -50.134864807 -35 -40.201618195 -63.486312866
        -35 -30.409116745 -76.964538574 -35 -20.610736847 -90.45085144
        -30 -49.902015686 -50.134864807 -30 -40.201618195 -63.486312866
        -30 -30.409116745 -76.964538574 -30 -20.610736847 -90.45085144
        -25 -49.902015686 -50.134864807 -25 -40.201618195 -63.486312866
        -25 -30.409116745 -76.964538574 -25 -20.610736847 -90.45085144
        -20 -49.902015686 -50.134864807 -20 -40.201618195 -63.486312866
        -20 -30.409116745 -76.964538574 -20 -20.610736847 -90.45085144
        -15 -49.902015686 -50.134864807 -15 -40.201618195 -63.486312866
        -15 -30.409116745 -76.964538574 -15 -20.610736847 -90.45085144
        -10 -49.902015686 -50.134864807 -10 -40.201618195 -63.486312866
        -10 -30.409116745 -76.964538574 -10 -20.610736847 -90.45085144
        -5 -49.902015686 -50.134864807 -5 -40.201618195 -63.486312866
        -5 -30.409116745 -76.964538574 -5 -20.610736847 -90.45085144
        1.4210854715e-14 -49.902015686 -50.134864807 1.4210854715e-14 -40.201618195 -63.486312866
        1.4210854715e-14 -30.409116745 -76.964538574 1.4210854715e-14 -20.610736847 -90.45085144
        -50 -49.841457367 -50.051513672 -50 -34.145889282 -55.151313782
        -50 -18.301286697 -60.299537659 -50 -2.4471740723 -65.45085144
        -45 -49.841457367 -50.051513672 -45 -34.145889282 -55.151313782
        -45 -18.301286697 -60.299537659 -45 -2.4471740723 -65.45085144
        -40 -49.841457367 -50.051513672 -40 -34.145889282 -55.151313782
        -40 -18.301286697 -60.299537659 -40 -2.4471740723 -65.45085144
        -35 -49.841457367 -50.051513672 -35 -34.145889282 -55.151313782
        -35 -18.301286697 -60.299537659 -35 -2.4471740723 -65.45085144
        -30 -49.841457367 -50.051513672 -30 -34.145889282 -55.151313782
        -30 -18.301286697 -60.299537659 -30 -2.4471740723 -65.45085144
        -25 -49.841457367 -50.051513672 -25 -34.145889282 -55.151313782
        -25 -18.301286697 -60.299537659 -25 -2.4471740723 -65.45085144
        -20 -49.841457367 -50.051513672 -20 -34.145889282 -55.151313782
        -20 -18.301286697 -60.299537659 -20 -2.4471740723 -65.45085144
        -15 -49.841457367 -50.051513672 -15 -34.145889282 -55.151313782
        -15 -18.301286697 -60.299537659 -15 -2.4471740723 -65.45085144
        -10 -49.841457367 -50.051513672 -10 -34.145889282 -55.151313782
        -10 -18.301286697 -60.299537659 -10 -2.4471740723 -65.45085144
        -5 -49.841457367 -50.051513672 -5 -34.145889282 -55.151313782
        -5 -18.301286697 -60.299537659 -5 -2.4471740723 -65.45085144
        1.4210854715e-14 -49.841457367 -50.051513672 1.4210854715e-14 -34.145889282 -55.151313782
        1.4210854715e-14 -18.301286697 -60.299537659 1.4210854715e-14 -2.4471740723 -65.45085144
        -50 -49.841457367 -49.948486328 -50 -34.145889282 -44.848686218
        -50 -18.301286697 -39.700462341 -50 -2.4471740723 -34.54914856
        -45 -49.841457367 -49.948486328 -45 -34.145889282 -44.848686218
        -45 -18.301286697 -39.700462341 -45 -2.4471740723 -34.54914856
        -40 -49.841457367 -49.948486328 -40 -34.145889282 -44.848686218
        -40 -18.301286697 -39.700462341 -40 -2.4471740723 -34.54914856
        -35 -49.841457367 -49.948486328 -35 -34.145889282 -44.848686218
        -35 -18.301286697 -39.700462341 -35 -2.4471740723 -34.54914856
        -30 -49.841457367 -49.948486328 -30 -34.145889282 -44.848686218
        -30 -18.301286697 -39.700462341 -30 -2.4471740723 -34.54914856
        -25 -49.841457367 -49.948486328 -25 -34.145889282 -44.848686218
        -25 -18.301286697 -39.700462341 -25 -2.4471740723 -34.54914856
        -20 -49.841457367 -49.948486328 -20 -34.145889282 -44.848686218
        -20 -18.301286697 -39.700462341 -20 -2.4471740723 -34.54914856
        -15 -49.841457367 -49.948486328 -15 -34.145889282 -44.848686218
        -15 -18.301286697 -39.700462341 -15 -2.4471740723 -34.54914856
        -10 -49.841457367 -49.948486328 -10 -34.145889282 -44.848686218
        -10 -18.301286697 -39.700462341 -10 -2.4471740723 -34.54914856
        -5 -49.841457367 -49.948486328 -5 -34.145889282 -44.848686218
        -5 -18.301286697 -39.700462341 -5 -2.4471740723 -34.54914856
        1.4210854715e-14 -49.841457367 -49.948486328 1.4210854715e-14 -34.145889282 -44.848686218
        1.4210854715e-14 -18.301286697 -39.700462341 1.4210854715e-14 -2.4471740723 -34.54914856
        -50 -49.902015686 -49.865135193 -50 -40.201618195 -36.513687134
        -50 -30.409116745 -23.035463333 -50 -20.610736847 -9.5491504669
        -45 -49.902015686 -49.865135193 -45 -40.201618195 -36.513687134
        -45 -30.409116745 -23.035463333 -45 -20.610736847 -9.5491504669
        -40 -49.902015686 -49.865135193 -40 -40.201618195 -36.513687134
        -40 -30.409116745 -23.035463333 -40 -20.610736847 -9.5491504669
        -35 -49.902015686 -49.865135193 -35 -40.201618195 -36.513687134
        -35 -30.409116745 -23.035463333 -35 -20.610736847 -9.5491504669
        -30 -49.902015686 -49.865135193 -30 -40.201618195 -36.513687134
        -30 -30.409116745 -23.035463333 -30 -20.610736847 -9.5491504669
        -25 -49.902015686 -49.865135193 -25 -40.201618195 -36.513687134
        -25 -30.409116745 -23.035463333 -25 -20.610736847 -9.5491504669
        -20 -49.902015686 -49.865135193 -20 -40.201618195 -36.513687134
        -20 -30.409116745 -23.035463333 -20 -20.610736847 -9.5491504669
        -15 -49.902015686 -49.865135193 -15 -40.201618195 -36.513687134
        -15 -30.409116745 -23.035463333 -15 -20.610736847 -9.5491504669
        -10 -49.902015686 -49.865135193 -10 -40.201618195 -36.513687134
        -10 -30.409116745 -23.035463333 -10 -20.610736847 -9.5491504669
        -5 -49.902015686 -49.865135193 -5 -40.201618195 -36.513687134
        -5 -30.409116745 -23.035463333 -5 -20.610736847 -9.5491504669
        1.4210854715e-14 -49.902015686 -49.865135193 1.4210854715e-14 -40.201618195 -36.513687134
        1.4210854715e-14 -30.409116745 -23.035463333 1.4210854715e-14 -20.610736847 -9.5491504669
        -50 -50 -49.833301544 -50 -50 -33.330001831
        -50 -50 -16.670000076 -50 -50 1.4210854715e-14
        -45 -50 -49.833301544 -45 -50 -33.330001831
        -45 -50 -16.670000076 -45 -50 1.4210854715e-14
        -40 -50 -49.833301544 -40 -50 -33.330001831
        -40 -50 -16.670000076 -40 -50 1.4210854715e-14
        -35 -50 -49.833301544 -35 -50 -33.330001831
        -35 -50 -16.670000076 -35 -50 1.4210854715e-14
        -30 -50 -49.833301544 -30 -50 -33.330001831
        -30 -50 -16.670000076 -30 -50 1.4210854715e-14
        -25 -50 -49.833301544 -25 -50 -33.330001831
        -25 -50 -16.670000076 -25 -50 1.4210854715e-14
        -20 -50 -49.833301544 -20 -50 -33.330001831
        -20 -50 -16.670000076 -20 -50 1.4210854715e-14
        -15 -50 -49.833301544 -15 -50 -33.330001831
        -15 -50 -16.670000076 -15 -50 1.4210854715e-14
        -10 -50 -49.833301544 -10 -50 -33.330001831
        -10 -50 -16.670000076 -10 -50 1.4210854715e-14
        -5 -50 -49.833301544 -5 -50 -33.330001831
        -5 -50 -16.670000076 -5 -50 1.4210854715e-14
        1.4210854715e-14 -50 -49.833301544 1.4210854715e-14 -50 -33.330001831
        1.4210854715e-14 -50 -16.670000076 1.4210854715e-14 -50 1.4210854715e-14
        -50 -50.097984314 -49.865135193 -50 -59.798381805 -36.513687134
        -50 -69.590881348 -23.035463333 -50 -79.389259338 -9.5491504669
        -45 -50.097984314 -49.865135193 -45 -59.798381805 -36.513687134
        -45 -69.590881348 -23.035463333 -45 -79.389259338 -9.5491504669
        -40 -50.097984314 -49.865135193 -40 -59.798381805 -36.513687134
        -40 -69.590881348 -23.035463333 -40 -79.389259338 -9.5491504669
        -35 -50.097984314 -49.865135193 -35 -59.798381805 -36.513687134
        -35 -69.590881348 -23.035463333 -35 -79.389259338 -9.5491504669
        -30 -50.097984314 -49.865135193 -30 -59.798381805 -36.513687134
        -30 -69.590881348 -23.035463333 -30 -79.389259338 -9.5491504669
        -25 -50.097984314 -49.865135193 -25 -59.798381805 -36.513687134
        -25 -69.590881348 -23.035463333 -25 -79.389259338 -9.5491504669
        -20 -50.097984314 -49.865135193 -20 -59.798381805 -36.513687134
        -20 -69.590881348 -23.035463333 -20 -79.389259338 -9.5491504669
        -15 -50.097984314 -49.865135193 -15 -59.798381805 -36.513687134
        -15 -69.590881348 -23.035463333 -15 -79.389259338 -9.5491504669
        -10 -50.097984314 -49.865135193 -10 -59.798381805 -36.513687134
        -10 -69.590881348 -23.035463333 -10 -79.389259338 -9.5491504669
        -5 -50.097984314 -49.865135193 -5 -59.798381805 -36.513687134
        -5 -69.590881348 -23.035463333 -5 -79.389259338 -9.5491504669
        1.4210854715e-14 -50.097984314 -49.865135193 1.4210854715e-14 -59.798381805 -36.513687134
        1.4210854715e-14 -69.590881348 -23.035463333 1.4210854715e-14 -79.389259338 -9.5491504669
        -50 -50.158542633 -49.948486328 -50 -65.854110718 -44.848686218
        -50 -81.69871521 -39.700462341 -50 -97.552825928 -34.54914856
        -45 -50.158542633 -49.948486328 -45 -65.854110718 -44.848686218
        -45 -81.69871521 -39.700462341 -45 -97.552825928 -34.54914856
        -40 -50.158542633 -49.948486328 -40 -65.854110718 -44.848686218
        -40 -81.69871521 -39.700462341 -40 -97.552825928 -34.54914856
        -35 -50.158542633 -49.948486328 -35 -65.854110718 -44.848686218
        -35 -81.69871521 -39.700462341 -35 -97.552825928 -34.54914856
        -30 -50.158542633 -49.948486328 -30 -65.854110718 -44.848686218
        -30 -81.69871521 -39.700462341 -30 -97.552825928 -34.54914856
        -25 -50.158542633 -49.948486328 -25 -65.854110718 -44.848686218
        -25 -81.69871521 -39.700462341 -25 -97.552825928 -34.54914856
        -20 -50.158542633 -49.948486328 -20 -65.854110718 -44.848686218
        -20 -81.69871521 -39.700462341 -20 -97.552825928 -34.54914856
        -15 -50.158542633 -49.948486328 -15 -65.854110718 -44.848686218
        -15 -81.69871521 -39.700462341 -15 -97.552825928 -34.54914856
        -10 -50.158542633 -49.948486328 -10 -65.854110718 -44.848686218
        -10 -81.69871521 -39.700462341 -10 -97.552825928 -34.54914856
        -5 -50.158542633 -49.948486328 -5 -65.854110718 -44.848686218
        -5 -81.69871521 -39.700462341 -5 -97.552825928 -34.54914856
        1.4210854715e-14 -50.158542633 -49.948486328 1.4210854715e-14 -65.854110718 -44.848686218
        1.4210854715e-14 -81.69871521 -39.700462341 1.4210854715e-14 -97.552825928 -34.54914856
        -50 -50.158542633 -50.051513672 -50 -65.854110718 -55.151313782
        -50 -81.69871521 -60.299537659 -50 -97.552825928 -65.45085144
        -45 -50.158542633 -50.051513672 -45 -65.854110718 -55.151313782
        -45 -81.69871521 -60.299537659 -45 -97.552825928 -65.45085144
        -40 -50.158542633 -50.051513672 -40 -65.854110718 -55.151313782
        -40 -81.69871521 -60.299537659 -40 -97.552825928 -65.45085144
        -35 -50.158542633 -50.051513672 -35 -65.854110718 -55.151313782
        -35 -81.69871521 -60.299537659 -35 -97.552825928 -65.45085144
        -30 -50.158542633 -50.051513672 -30 -65.854110718 -55.151313782
        -30 -81.69871521 -60.299537659 -30 -97.552825928 -65.45085144
        -25 -50.158542633 -50.051513672 -25 -65.854110718 -55.151313782
        -25 -81.69871521 -60.299537659 -25 -97.552825928 -65.45085144
        -20 -50.158542633 -50.051513672 -20 -65.854110718 -55.151313782
        -20 -81.69871521 -60.299537659 -20 -97.552825928 -65.45085144
        -15 -50.158542633 -50.051513672 -15 -65.854110718 -55.151313782
        -15 -81.69871521 -60.299537659 -15 -97.552825928 -65.45085144
        -10 -50.158542633 -50.051513672 -10 -65.854110718 -55.151313782
        -10 -81.69871521 -60.299537659 -10 -97.552825928 -65.45085144
        -5 -50.158542633 -50.051513672 -5 -65.854110718 -55.151313782
        -5 -81.69871521 -60.299537659 -5 -97.552825928 -65.45085144
        1.4210854715e-14 -50.158542633 -50.051513672 1.4210854715e-14 -65.854110718 -55.151313782
        1.4210854715e-14 -81.69871521 -60.299537659 1.4210854715e-14 -97.552825928 -65.45085144
        -50 -50.097984314 -50.134864807 -50 -59.798381805 -63.486312866
        -50 -69.590881348 -76.964538574 -50 -79.389259338 -90.45085144
        -45 -50.097984314 -50.134864807 -45 -59.798381805 -63.486312866
        -45 -69.590881348 -76.964538574 -45 -79.389259338 -90.45085144
        -40 -50.097984314 -50.134864807 -40 -59.798381805 -63.486312866
        -40 -69.590881348 -76.964538574 -40 -79.389259338 -90.45085144
        -35 -50.097984314 -50.134864807 -35 -59.798381805 -63.486312866
        -35 -69.590881348 -76.964538574 -35 -79.389259338 -90.45085144
        -30 -50.097984314 -50.134864807 -30 -59.798381805 -63.486312866
        -30 -69.590881348 -76.964538574 -30 -79.389259338 -90.45085144
        -25 -50.097984314 -50.134864807 -25 -59.798381805 -63.486312866
        -25 -69.590881348 -76.964538574 -25 -79.389259338 -90.45085144
        -20 -50.097984314 -50.134864807 -20 -59.798381805 -63.486312866
        -20 -69.590881348 -76.964538574 -20 -79.389259338 -90.45085144
        -15 -50.097984314 -50.134864807 -15 -59.798381805 -63.486312866
        -15 -69.590881348 -76.964538574 -15 -79.389259338 -90.45085144
        -10 -50.097984314 -50.134864807 -10 -59.798381805 -63.486312866
        -10 -69.590881348 -76.964538574 -10 -79.389259338 -90.45085144
        -5 -50.097984314 -50.134864807 -5 -59.798381805 -63.486312866
        -5 -69.590881348 -76.964538574 -5 -79.389259338 -90.45085144
        1.4210854715e-14 -50.097984314 -50.134864807 1.4210854715e-14 -59.798381805 -63.486312866
        1.4210854715e-14 -69.590881348 -76.964538574 1.4210854715e-14 -79.389259338 -90.45085144
        -50 -50 -50.166698456 -50 -50 -66.669998169
        -50 -50 -83.330001831 -50 -50 -100
        -45 -50 -50.166698456 -45 -50 -66.669998169
        -45 -50 -83.330001831 -45 -50 -100
        -40 -50 -50.166698456 -40 -50 -66.669998169
        -40 -50 -83.330001831 -40 -50 -100
        -35 -50 -50.166698456 -35 -50 -66.669998169
        -35 -50 -83.330001831 -35 -50 -100
        -30 -50 -50.166698456 -30 -50 -66.669998169
        -30 -50 -83.330001831 -30 -50 -100
        -25 -50 -50.166698456 -25 -50 -66.669998169
        -25 -50 -83.330001831 -25 -50 -100
        -20 -50 -50.166698456 -20 -50 -66.669998169
        -20 -50 -83.330001831 -20 -50 -100
        -15 -50 -50.166698456 -15 -50 -66.669998169
        -15 -50 -83.330001831 -15 -50 -100
        -10 -50 -50.166698456 -10 -50 -66.669998169
        -10 -50 -83.330001831 -10 -50 -100
        -5 -50 -50.166698456 -5 -50 -66.669998169
        -5 -50 -83.330001831 -5 -50 -100
        1.4210854715e-14 -50 -50.166698456 1.4210854715e-14 -50 -66.669998169
        1.4210854715e-14 -50 -83.330001831 1.4210854715e-14 -50 -100
      </DataArray>
    </Points>
  </Piece>
  </StructuredGrid>
</VTKFile>
