<?xml version="1.0"?>
<VTKFile type="RectilinearGrid" version="0.1" byte_order="LittleEndian" header_type="UInt32" compressor="vtkZLibDataCompressor">
  <RectilinearGrid WholeExtent="0 2 0 2 0 1">
    <FieldData>
      <Array type="String" Name="creationTime" NumberOfTuples="1" format="ascii">
        84 117 101 32 78 111 118 32 50 51 32 49 55 58 53 57 58 52 49 32 50 48 50 49 0
      </Array>
      <Array type="String" Name="author" NumberOfTuples="1" format="ascii">
        102 97 98 98 114 109 97 0
      </Array>
      <Array type="String" Name="host" NumberOfTuples="1" format="ascii">
        45 76 45 49 57 53 54 57 0
      </Array>
      <Array type="String" Name="path" NumberOfTuples="1" format="ascii">
        68 58 92 80 121 116 104 111 110 92 109 101 115 104 50 118 116 107 92 116 101 115 116 0
      </Array>
    </FieldData>
  <Piece Extent="0 2 0 2 0 1">
    <PointData>
    </PointData>
    <CellData>
      <DataArray type="Float64" Name="Value - Total" format="ascii" RangeMin="1" RangeMax="16">
        1 9 4 16
      </DataArray>
      <DataArray type="Float64" Name="Error - Total" format="ascii" RangeMin="0" RangeMax="0">
        0 0 0 0
      </DataArray>
    </CellData>
    <Coordinates>
      <DataArray type="Float64" Name="X (cm)" format="ascii" RangeMin="-50" RangeMax="50">
        -50 0 50
      </DataArray>
      <DataArray type="Float64" Name="Y (cm)" format="ascii" RangeMin="-50" RangeMax="50">
        -50 0 50
      </DataArray>
      <DataArray type="Float64" Name="Z (cm)" format="ascii" RangeMin="-50" RangeMax="50">
        -50 50
      </DataArray>
    </Coordinates>
  </Piece>
  </RectilinearGrid>
</VTKFile>
